ITEM: TIMESTEP
0
ITEM: NUMBER OF ATOMS
11062
ITEM: BOX BOUNDS pp pp pp
0.0000000000000000e+00 6.1060000000000002e+01
0.0000000000000000e+00 3.1973630000000000e+01
0.0000000000000000e+00 7.5000000000000000e+01
ITEM: ATOMS id type xs ys zs
61 2 0.0271562 0.208839 0.0258818
62 1 0.0320504 0.180442 0.0265542
63 1 0.0132517 0.20725 0.0200267
308 1 0.0402496 0.194281 0.0881611
562 2 0.0543921 0.0450126 0.0492073
563 1 0.0490815 0.039307 0.0374483
564 1 0.069117 0.0544136 0.0474435
625 2 0.0763076 0.178744 0.0669825
626 1 0.0821171 0.160229 0.0581387
627 1 0.0879314 0.181966 0.0754351
644 1 0.0736543 0.248516 0.0412146
645 1 0.0492133 0.241268 0.042615
808 2 0.0396522 0.118076 0.067441
809 1 0.0440844 0.0922603 0.0620796
810 1 0.0525493 0.135087 0.0672381
838 2 0.0841863 0.0503033 0.00669731
839 1 0.0767757 0.0356108 0.0160383
840 1 0.099073 0.0411274 0.00753029
856 2 0.0894609 0.21114 0.0258855
857 1 0.104982 0.208044 0.0270982
858 1 0.0849535 0.187037 0.0192645
1057 2 0.123289 0.14099 0.018614
1059 1 0.111374 0.1411 0.0103203
1284 1 0.1163 0.119938 0.0821016
1537 2 0.105482 0.160914 0.0994403
3967 2 0.100642 0.114735 0.0493874
3968 1 0.109611 0.120213 0.0391839
3969 1 0.110767 0.106628 0.0584977
4141 2 0.011318 0.0870396 0.0948295
4142 1 0.0242768 0.0986766 0.0896363
4143 1 0.000161415 0.107358 0.0925158
4441 2 0.0373203 0.12267 0.0159939
4442 1 0.0447166 0.106189 0.00720383
4443 1 0.0247998 0.106327 0.0192258
4598 1 0.0414321 0.246101 0.00704673
4599 1 0.0645216 0.243673 0.0143279
4621 2 0.123936 0.0130905 0.0462974
4623 1 0.108665 0.00756511 0.0479593
4624 2 0.0185712 0.221455 0.0677381
4625 1 0.0193629 0.221705 0.0549922
4626 1 0.00592078 0.204881 0.0703623
88 2 0.170752 0.237861 0.0320659
90 1 0.167782 0.246281 0.0440724
109 2 0.178928 0.167865 0.0136175
110 1 0.182417 0.149078 0.0231391
111 1 0.174702 0.193237 0.0194535
174 1 0.242652 0.208816 0.023351
184 2 0.227484 0.0599754 0.0398878
185 1 0.232721 0.084599 0.0457628
186 1 0.216389 0.0492528 0.0476591
196 2 0.168388 0.020091 0.0274309
197 1 0.169875 0.028985 0.0395571
198 1 0.159528 0.0412041 0.0219689
427 2 0.215103 0.141716 0.0874937
428 1 0.203837 0.124032 0.0921747
429 1 0.228355 0.131007 0.0925575
802 2 0.198354 0.0289166 0.0659008
803 1 0.20959 0.0208986 0.0741176
804 1 0.194224 0.0564886 0.0695638
938 1 0.251555 0.250687 0.0691711
1058 1 0.136109 0.143316 0.0113361
1081 2 0.183462 0.129873 0.0463257
1082 1 0.197224 0.135861 0.0518783
1083 1 0.172748 0.138183 0.0549427
1099 2 0.227109 0.144627 0.0527331
1100 1 0.230318 0.145039 0.0652244
1101 1 0.231266 0.171811 0.0485936
1279 2 0.164588 0.175331 0.0767675
1280 1 0.166317 0.204444 0.0741482
1281 1 0.176885 0.168601 0.0841448
1282 2 0.129062 0.110045 0.0760061
1283 1 0.139636 0.131848 0.0775489
1924 2 0.229874 0.24181 0.0886215
1925 1 0.235076 0.223319 0.0977215
2460 1 0.247108 0.0873227 0.0235679
4622 1 0.1261 0.011076 0.0336861
4789 2 0.140491 0.0260033 0.0846849
4790 1 0.129952 0.0172778 0.0759994
4791 1 0.140031 0.0559137 0.0842954
106 2 0.369636 0.195313 0.0464153
107 1 0.356367 0.182585 0.0505059
172 2 0.252392 0.205501 0.0332507
173 1 0.266336 0.214413 0.028825
385 2 0.291723 0.180475 0.0783533
386 1 0.281882 0.197656 0.0716413
387 1 0.287421 0.152436 0.0755739
424 2 0.252724 0.10236 0.0987325
426 1 0.260787 0.0864089 0.090156
574 2 0.302642 0.0966136 0.0183728
575 1 0.287375 0.099845 0.0209243
576 1 0.30439 0.0673746 0.0160313
823 2 0.324586 0.0369907 0.0855961
824 1 0.333221 0.0510833 0.0768003
825 1 0.323801 0.00868713 0.0814869
898 2 0.36885 0.0674276 0.019982
899 1 0.367385 0.0648274 0.00732356
900 1 0.362492 0.0423316 0.0246326
937 2 0.265356 0.245401 0.0635529
939 1 0.261695 0.230775 0.0528235
1102 2 0.285372 0.106201 0.056009
1103 1 0.29764 0.108326 0.0481157
1104 1 0.284537 0.0770847 0.0588981
1345 2 0.352286 0.154092 0.0843057
1346 1 0.354976 0.183547 0.0836644
1347 1 0.363056 0.143856 0.0924884
1542 1 0.300995 0.148685 0.100124
1549 2 0.317604 0.180116 0.0224731
1550 1 0.311202 0.152804 0.0228525
1551 1 0.316378 0.190305 0.0344324
2044 2 0.326707 0.201343 0.0574334
2045 1 0.321423 0.229207 0.0592402
2046 1 0.320338 0.185483 0.0669351
2096 1 0.322739 0.238575 0.0168591
2458 2 0.260319 0.10302 0.0220144
2459 1 0.259741 0.124048 0.0310863
2740 2 0.346391 0.0871545 0.063116
2741 1 0.347522 0.110912 0.070827
2742 1 0.360368 0.0855155 0.057379
4678 2 0.267422 0.0359231 0.0771443
4679 1 0.279741 0.0176001 0.0782736
4680 1 0.255395 0.0203131 0.0819116
108 1 0.375501 0.175788 0.038001
601 2 0.395737 0.213287 0.0770097
602 1 0.390781 0.206954 0.0652064
603 1 0.383045 0.223963 0.0829603
1546 2 0.39546 0.139677 0.0201978
1547 1 0.382134 0.124117 0.0191136
1548 1 0.405242 0.121214 0.0263223
1596 1 0.394821 0.239841 0.0241118
1864 2 0.44569 0.173669 0.026136
1865 1 0.438325 0.158926 0.0354864
1866 1 0.455818 0.191576 0.0321875
2029 2 0.455624 0.0775983 0.0124998
2030 1 0.467392 0.097194 0.0113564
2031 1 0.445011 0.0916938 0.0197194
2035 2 0.471824 0.216083 0.0983217
2037 1 0.457749 0.204376 0.0957402
2068 2 0.415332 0.0394918 0.0951709
2070 1 0.423736 0.0145265 0.093499
2089 2 0.431033 0.188519 0.0979421
2091 1 0.4184 0.192421 0.0905705
2251 2 0.496775 0.146762 0.0539519
2253 1 0.484576 0.149742 0.0618663
2281 2 0.449478 0.150117 0.07058
2282 1 0.449944 0.125265 0.0776859
2283 1 0.44294 0.17067 0.0781811
2476 2 0.453312 0.0771585 0.0873756
2477 1 0.457743 0.0543243 0.0799519
2478 1 0.437677 0.0752017 0.0877854
2563 2 0.423896 0.100531 0.0427133
2564 1 0.413469 0.0829817 0.0486169
2565 1 0.43188 0.11357 0.0521864
2737 2 0.444312 0.0127829 0.0348934
2738 1 0.429193 0.00749828 0.0323832
2739 1 0.447364 0.0387434 0.0290434
3226 2 0.39089 0.0571373 0.0622327
3227 1 0.385239 0.0301183 0.0592265
3228 1 0.400302 0.0521622 0.0722165
879 1 0.514191 0.159824 0.0969935
1810 2 0.603622 0.107927 0.0541732
1811 1 0.595165 0.0890011 0.0470753
1812 1 0.613479 0.120799 0.0459044
2252 1 0.505087 0.12411 0.0588342
2266 2 0.600991 0.172291 0.0954418
2267 1 0.59109 0.150173 0.0984417
2299 2 0.556236 0.174252 0.0630206
2300 1 0.569087 0.168171 0.0561869
2301 1 0.550937 0.147451 0.0667261
2473 2 0.562446 0.0922182 0.0121158
2474 1 0.573928 0.112365 0.0108023
2475 1 0.549929 0.10832 0.015569
2491 2 0.523757 0.150099 0.0174018
2492 1 0.520307 0.152616 0.0298053
2493 1 0.509824 0.149746 0.0115538
2512 2 0.528234 0.0975218 0.0764018
2513 1 0.529618 0.0901631 0.0887214
2514 1 0.536383 0.0764931 0.0701972
2701 2 0.597987 0.23028 0.0714053
2702 1 0.60804 0.225798 0.0618003
2703 1 0.600648 0.207561 0.0794297
2716 2 0.561798 0.221169 0.0260786
2717 1 0.552408 0.20422 0.0333065
2718 1 0.553106 0.245119 0.0231518
2722 2 0.548664 0.0363321 0.0575634
2723 1 0.535062 0.0229816 0.0547598
2724 1 0.557633 0.0317154 0.0472828
2918 1 0.62072 0.0810108 0.0672928
2919 1 0.622346 0.0545726 0.083986
3472 2 0.606576 0.226522 0.0224554
3473 1 0.591178 0.227606 0.0248066
3474 1 0.612489 0.210485 0.0320976
3497 1 0.592378 0.039265 0.0985031
3721 2 0.590657 0.0375936 0.0312417
3722 1 0.581742 0.0420806 0.0209196
3723 1 0.604938 0.0468378 0.0277528
4312 2 0.548068 0.234574 0.0949134
4313 1 0.546155 0.223287 0.0831957
2138 1 0.656529 0.248869 0.0954227
2455 2 0.674119 0.169801 0.0560849
2456 1 0.664688 0.17107 0.0662656
2457 1 0.678448 0.141075 0.0553828
2479 2 0.64983 0.0113108 0.0465184
2480 1 0.637396 0.0106448 0.0387516
2481 1 0.645444 0.0290634 0.0561545
2694 1 0.676114 0.223785 0.0666432
2911 2 0.740468 0.166493 0.0499574
2912 1 0.7369 0.1573 0.061751
2917 2 0.630693 0.0640176 0.0739617
2980 2 0.69605 0.0167941 0.0811516
2981 1 0.692359 0.0117067 0.0933644
2982 1 0.711364 0.01064 0.0804094
3076 2 0.740652 0.222074 0.0222019
3078 1 0.742674 0.205989 0.0328391
3202 2 0.716073 0.0729112 0.0149384
3203 1 0.731271 0.0754869 0.0178682
3204 1 0.70899 0.0938442 0.0220091
3205 2 0.632134 0.0557839 0.0165372
3206 1 0.629729 0.0402008 0.00581714
3207 1 0.64569 0.0700815 0.0145537
3232 2 0.701777 0.16152 0.0247209
3233 1 0.69185 0.17721 0.03199
3234 1 0.715902 0.166995 0.0297405
3280 2 0.629679 0.18694 0.0505441
3281 1 0.629672 0.163317 0.0583842
3282 1 0.644405 0.188537 0.04622
3475 2 0.739705 0.147492 0.0934541
3477 1 0.733834 0.119741 0.093195
3511 2 0.683928 0.0868903 0.0574475
3512 1 0.68848 0.0773104 0.0459378
3513 1 0.687958 0.0647713 0.0653978
4507 2 0.649929 0.139161 0.0821877
4508 1 0.645002 0.136707 0.0942584
4509 1 0.651384 0.110894 0.0781538
2556 1 0.789004 0.244617 0.0254644
2680 2 0.837664 0.0697698 0.0638971
2681 1 0.829452 0.0475849 0.0585358
2682 1 0.829575 0.0768428 0.0744058
2913 1 0.749822 0.145056 0.0453337
3077 1 0.753997 0.23749 0.0209179
3476 1 0.755236 0.143635 0.0928991
3523 2 0.808566 0.175018 0.0883574
3524 1 0.804411 0.20204 0.0926857
3525 1 0.818739 0.180696 0.0789535
3535 2 0.770895 0.047671 0.0626238
3536 1 0.757795 0.0320897 0.0648626
3537 1 0.773691 0.062162 0.0735572
3550 2 0.77849 0.121978 0.0422531
3551 1 0.780518 0.0963595 0.0486466
3552 1 0.792935 0.133254 0.0410394
3958 2 0.834844 0.125659 0.036268
3959 1 0.837145 0.10468 0.0451779
3960 1 0.848314 0.140952 0.0359232
3982 2 0.78699 0.100825 0.0909444
3983 1 0.792123 0.128847 0.0892987
4018 2 0.804498 0.204902 0.0347485
4019 1 0.815304 0.207404 0.043933
4020 1 0.809649 0.182499 0.0273943
4408 2 0.837255 0.19949 0.0633461
4409 1 0.842043 0.226618 0.0670804
4410 1 0.848655 0.180984 0.0671553
4612 2 0.872819 0.12032 0.0809498
4614 1 0.863238 0.098522 0.0769887
2749 2 0.943256 0.225518 0.0769118
2750 1 0.957706 0.230058 0.0814658
2751 1 0.934349 0.222029 0.0873087
3271 2 0.913257 0.156741 0.0675709
3272 1 0.921904 0.181652 0.0683151
3273 1 0.916413 0.141952 0.0783659
3274 2 0.883587 0.163454 0.00399845
3275 1 0.888403 0.135068 0.00503267
3276 1 0.879615 0.171295 0.0158836
3754 2 0.91163 0.229514 0.0313226
3755 1 0.912423 0.244295 0.0202427
3756 1 0.918374 0.203083 0.0289205
3964 2 0.908665 0.072879 0.098684
4057 2 0.876885 0.16422 0.042704
4058 1 0.887572 0.150613 0.0500207
4059 1 0.882973 0.191259 0.0403679
4168 2 0.931394 0.152241 0.0249912
4169 1 0.941862 0.133759 0.019683
4170 1 0.923945 0.135379 0.0336183
4174 2 0.971644 0.0584628 0.0923392
4175 1 0.961019 0.0393037 0.0969605
4176 1 0.969079 0.0838838 0.0987483
4195 2 0.919594 0.0418095 0.0498927
4196 1 0.904438 0.036133 0.0520759
4197 1 0.926761 0.0347733 0.0608401
4198 2 0.885106 0.084773 0.00933551
4199 1 0.875906 0.064518 0.00365932
4200 1 0.898888 0.0708873 0.0107294
4405 2 0.964951 0.217336 0.0367597
4406 1 0.955489 0.199057 0.0302164
4407 1 0.956047 0.241159 0.0394408
4613 1 0.887209 0.108818 0.0796918
4645 2 0.95372 0.056119 0.0259606
4646 1 0.940468 0.0531911 0.0326638
4647 1 0.96048 0.0291477 0.0265845
26 1 0.061668 0.480607 0.0160679
262 2 0.0893879 0.409636 0.0611551
263 1 0.0927259 0.40737 0.0487225
264 1 0.0804091 0.434089 0.0620322
289 2 0.0383913 0.330612 0.0349765
290 1 0.0350141 0.335695 0.0472497
291 1 0.0479583 0.306901 0.0351786
512 1 0.12083 0.321795 0.0525916
513 1 0.119846 0.28277 0.0639945
643 2 0.0604006 0.26124 0.0453414
691 2 0.0891029 0.283455 0.0711712
692 1 0.0784775 0.277552 0.0621312
693 1 0.082182 0.275166 0.082064
766 2 0.11224 0.348339 0.0910323
767 1 0.100434 0.368034 0.0909018
768 1 0.106651 0.324485 0.0848056
952 2 0.11409 0.363715 0.0312492
953 1 0.107835 0.340485 0.0250136
954 1 0.116278 0.38453 0.0222506
1123 2 0.0520073 0.349081 0.0793767
1124 1 0.0639449 0.345297 0.0712633
1125 1 0.0520582 0.378392 0.0819748
3898 2 0.102469 0.306459 0.00486664
3899 1 0.113211 0.286597 0.00870042
3900 1 0.0896288 0.290091 0.00264834
4084 2 0.0356946 0.421126 0.0957398
4270 2 0.01495 0.385339 0.0124905
4271 1 0.0102323 0.365804 0.00361455
4272 1 0.0211365 0.368341 0.0217107
4486 2 0.0875653 0.483501 0.0798595
4488 1 0.0814381 0.459323 0.0854954
4527 1 0.0863826 0.485864 0.0407778
4597 2 0.0562707 0.253228 0.00426953
4615 2 0.0215213 0.29347 0.0956152
4616 1 0.0217854 0.273033 0.0862915
4617 1 0.0336937 0.31138 0.093089
4682 1 0.116169 0.461116 0.093585
4777 2 0.0477515 0.444013 0.0452329
4778 1 0.0351495 0.450747 0.0522602
4779 1 0.0444894 0.417203 0.0402129
46 2 0.174783 0.278666 0.0665235
47 1 0.180005 0.277414 0.0785455
48 1 0.160217 0.289481 0.0675246
89 1 0.176267 0.262559 0.0264211
136 2 0.145668 0.405866 0.0709198
137 1 0.132608 0.389786 0.0726067
138 1 0.152704 0.3932 0.0608739
328 2 0.179004 0.46126 0.0762399
329 1 0.164564 0.454815 0.0721018
330 1 0.186492 0.434959 0.0762334
397 2 0.204595 0.29559 0.0295282
398 1 0.211473 0.307523 0.0398067
399 1 0.212647 0.270447 0.0272887
508 2 0.248179 0.476034 0.0193708
510 1 0.23268 0.474962 0.0212338
511 2 0.129842 0.30032 0.0576166
664 2 0.164253 0.357908 0.0458546
665 1 0.152355 0.338506 0.0450532
666 1 0.17221 0.354168 0.0349745
901 2 0.192912 0.422495 0.0131142
902 1 0.20167 0.419968 0.0236448
903 1 0.202887 0.432078 0.00415607
904 2 0.219644 0.431392 0.0428088
905 1 0.211171 0.418298 0.0519815
906 1 0.234536 0.426497 0.046205
940 2 0.203705 0.388056 0.0715798
941 1 0.191136 0.372045 0.0681777
942 1 0.211303 0.370606 0.0799036
958 2 0.221608 0.329947 0.0954761
959 1 0.207334 0.322993 0.0998421
1174 2 0.233703 0.312807 0.0582542
1175 1 0.245285 0.329262 0.0632306
1176 1 0.223902 0.308078 0.0680087
1926 1 0.227458 0.267796 0.0946456
2062 2 0.155562 0.45083 0.0263621
2063 1 0.169359 0.445461 0.0207507
2064 1 0.149368 0.423693 0.0282652
4553 1 0.231498 0.481296 0.0648101
4554 1 0.208807 0.492529 0.0713851
4683 1 0.13448 0.429235 0.0928905
31 2 0.26414 0.459873 0.0610249
32 1 0.263223 0.446425 0.0496468
33 1 0.274557 0.481887 0.0593287
423 1 0.312634 0.48277 0.0526804
553 2 0.344827 0.453253 0.057255
554 1 0.338111 0.438139 0.0668191
555 1 0.356371 0.468757 0.062811
598 2 0.317713 0.386527 0.0264132
599 1 0.322845 0.361133 0.0211001
600 1 0.312553 0.3783 0.0379432
739 2 0.358533 0.296814 0.0393878
740 1 0.371597 0.280378 0.0402066
741 1 0.348033 0.278566 0.0339751
1255 2 0.258941 0.47823 0.0959451
1256 1 0.255604 0.467012 0.0844285
1387 2 0.352192 0.256432 0.0819029
1388 1 0.357317 0.283982 0.0846483
1389 1 0.349187 0.257181 0.0693811
1399 2 0.335482 0.411993 0.0886504
1400 1 0.322335 0.397668 0.0919723
1401 1 0.338936 0.429023 0.0987634
1465 2 0.361 0.336882 0.086364
1466 1 0.372121 0.348793 0.0937897
1467 1 0.350612 0.358974 0.0847357
1552 2 0.30531 0.281085 0.0615541
1553 1 0.2907 0.270762 0.0601257
1554 1 0.30375 0.310873 0.0615961
1597 2 0.37081 0.382042 0.0417293
1598 1 0.360006 0.400598 0.0465183
1599 1 0.365116 0.354652 0.0439756
1609 2 0.291349 0.383493 0.0632471
1610 1 0.283787 0.409291 0.0612407
1611 1 0.295197 0.384189 0.0756159
1783 2 0.271392 0.410607 0.0260385
1784 1 0.285635 0.407187 0.0209105
1785 1 0.266983 0.438144 0.0225483
1804 2 0.337351 0.457649 0.0141586
1805 1 0.351739 0.462293 0.0188226
1806 1 0.330241 0.440821 0.0229856
1819 2 0.291796 0.399101 0.0990056
1821 1 0.281244 0.421234 0.0992507
1823 1 0.319776 0.288695 0.0908126
2095 2 0.326624 0.267067 0.014548
2097 1 0.313263 0.282293 0.0161062
2486 1 0.266762 0.283251 0.0921619
370 2 0.440552 0.378154 0.0090319
371 1 0.433977 0.353455 0.00419943
372 1 0.455962 0.373868 0.00756744
957 1 0.493355 0.490163 0.0827316
973 2 0.408818 0.433939 0.0382353
974 1 0.397161 0.413925 0.038159
975 1 0.411758 0.439182 0.0258998
1206 1 0.421851 0.500949 0.018113
1207 2 0.444108 0.419214 0.0950049
1209 1 0.456796 0.402667 0.09247
1407 1 0.480847 0.354757 0.0913569
1445 1 0.398632 0.499995 0.0674113
1446 1 0.391784 0.480845 0.0498126
1447 2 0.486017 0.273812 0.059318
1448 1 0.475297 0.294788 0.0619159
1449 1 0.489659 0.262139 0.0706903
1573 2 0.409855 0.469722 0.0847308
1574 1 0.42185 0.461194 0.0921002
1575 1 0.399781 0.446815 0.0852396
1594 2 0.398846 0.266981 0.0283861
1595 1 0.40644 0.279626 0.0186083
1681 2 0.40366 0.380326 0.0863402
1682 1 0.40522 0.367375 0.0749038
1683 1 0.417942 0.390959 0.0890136
1837 2 0.41483 0.308852 0.0583725
1838 1 0.409745 0.295558 0.047713
1839 1 0.414887 0.287063 0.0671247
2269 2 0.485677 0.271194 0.0203112
2270 1 0.487221 0.270495 0.0330083
2271 1 0.478539 0.297256 0.0179309
2542 2 0.455448 0.435015 0.0557625
2543 1 0.440281 0.428289 0.0542885
2544 1 0.455528 0.457769 0.0640562
2689 2 0.478998 0.471875 0.0284056
2690 1 0.472183 0.448063 0.0337951
2691 1 0.476535 0.494184 0.0366771
3254 1 0.498709 0.317424 0.0517658
3255 1 0.49098 0.349022 0.0381134
3583 2 0.457045 0.343289 0.0542851
3584 1 0.442254 0.333374 0.0544067
3585 1 0.455757 0.372838 0.0525246
226 2 0.520863 0.398992 0.094027
227 1 0.516674 0.426108 0.0898296
955 2 0.504387 0.478974 0.0904435
1380 1 0.506795 0.489469 0.020192
1795 2 0.573682 0.31422 0.0130027
1796 1 0.576805 0.316508 0.0254714
1797 1 0.558583 0.306253 0.0125001
1843 2 0.5243 0.400967 0.0229719
1844 1 0.531363 0.422066 0.0299656
1845 1 0.519221 0.380944 0.0315111
2002 2 0.505257 0.284464 0.0927506
2004 1 0.520039 0.278 0.0959856
2110 2 0.60965 0.296275 0.0913995
2111 1 0.605316 0.27464 0.083314
2112 1 0.596165 0.306914 0.0960669
2296 2 0.611383 0.396813 0.0188905
2297 1 0.60386 0.393568 0.00777935
2298 1 0.614228 0.426188 0.01973
2322 1 0.623753 0.341404 0.0530708
2329 2 0.600844 0.483513 0.0735097
2330 1 0.587373 0.468574 0.0749357
2331 1 0.607061 0.472475 0.0627801
2529 1 0.560026 0.3186 0.0933211
2605 2 0.530141 0.274223 0.0125056
2606 1 0.515367 0.282231 0.0150646
2607 1 0.528876 0.254317 0.00302874
2797 2 0.543364 0.340154 0.0732424
2798 1 0.534205 0.357121 0.0806563
2799 1 0.533921 0.330905 0.063849
3133 2 0.580472 0.309217 0.0552118
3134 1 0.571132 0.320825 0.0641881
3135 1 0.584255 0.282091 0.0596469
3172 2 0.56516 0.42856 0.0741017
3173 1 0.569392 0.431445 0.0618745
3174 1 0.558972 0.401109 0.0748448
3253 2 0.502305 0.344002 0.0466742
3451 2 0.579556 0.444186 0.0382924
3452 1 0.586788 0.419232 0.0344136
3453 1 0.584347 0.465255 0.0301072
2086 2 0.706767 0.26947 0.0998309
2087 1 0.699351 0.262152 0.0890284
2320 2 0.633001 0.341963 0.0427685
2321 1 0.625469 0.35965 0.0344969
2536 2 0.669477 0.291471 0.0379975
2537 1 0.669839 0.289981 0.0252541
2538 1 0.654814 0.299874 0.0407472
2623 2 0.710992 0.38051 0.0331786
2624 1 0.698561 0.371827 0.0263402
2625 1 0.718684 0.355126 0.0357394
2692 2 0.678689 0.250599 0.0719177
2693 1 0.677281 0.269941 0.0622443
2767 2 0.701471 0.464748 0.0294871
2768 1 0.691928 0.469186 0.0394341
2769 1 0.706588 0.436649 0.0309138
2998 2 0.653855 0.308407 0.00178634
2999 1 0.653719 0.338322 0.00226356
3000 1 0.638766 0.300566 0.00268828
3256 2 0.639756 0.450243 0.089667
3257 1 0.636664 0.424533 0.0957011
3258 1 0.627949 0.453467 0.0813848
3376 2 0.748615 0.4122 0.0526443
3378 1 0.739126 0.406344 0.0427968
3394 2 0.662268 0.388424 0.0107167
3395 1 0.651501 0.381022 0.0194392
3396 1 0.66008 0.417711 0.00876119
3421 2 0.645357 0.450652 0.0488259
3422 1 0.650806 0.478439 0.0505222
3423 1 0.655926 0.433084 0.0545483
3430 2 0.725825 0.468385 0.0779756
3431 1 0.733778 0.454587 0.0686828
3432 1 0.735313 0.46703 0.0881185
3514 2 0.746398 0.291912 0.0792532
3515 1 0.744698 0.3216 0.0801363
3516 1 0.736772 0.280876 0.0881602
3577 2 0.732724 0.374049 0.0806942
3578 1 0.737958 0.388624 0.0703927
3579 1 0.722544 0.392967 0.0860945
3592 2 0.682165 0.422774 0.0698771
3593 1 0.691139 0.432319 0.0795179
3594 1 0.674693 0.398852 0.0745553
3709 2 0.731191 0.303492 0.0424717
3710 1 0.738653 0.30393 0.053694
3711 1 0.733195 0.275587 0.0381474
3853 2 0.657932 0.470914 0.00554999
3854 1 0.642755 0.475742 0.00799782
3855 1 0.665481 0.483612 0.0153378
4324 2 0.71538 0.310923 0.00843471
4325 1 0.706728 0.288593 0.00367646
4326 1 0.72012 0.300928 0.0198293
49 2 0.828363 0.310928 0.0350166
50 1 0.84093 0.30152 0.0415058
51 1 0.816306 0.305981 0.0428966
2530 2 0.79137 0.419024 0.0871085
2531 1 0.78491 0.40862 0.0978583
2532 1 0.780142 0.435772 0.081784
2554 2 0.778789 0.267037 0.0239239
2555 1 0.776967 0.278456 0.0356281
2656 2 0.786136 0.296242 0.0592911
2657 1 0.771357 0.297455 0.0635148
2658 1 0.794696 0.307234 0.0689017
3231 1 0.830821 0.452116 0.0966041
3377 1 0.760152 0.428718 0.0476376
3850 2 0.836073 0.282943 0.088109
3851 1 0.828112 0.307922 0.0853735
3852 1 0.825505 0.264974 0.0936021
4003 2 0.845231 0.406265 0.053144
4004 1 0.843661 0.432818 0.0588982
4005 1 0.859645 0.406886 0.0481334
4114 2 0.77351 0.448178 0.0278167
4115 1 0.77688 0.459566 0.0163367
4116 1 0.785281 0.429248 0.030251
4234 2 0.82166 0.354292 0.0753121
4235 1 0.811327 0.374853 0.0792223
4236 1 0.831028 0.368996 0.0672235
4288 2 0.868099 0.389751 0.00370676
4289 1 0.865382 0.418707 0.00133777
4290 1 0.873878 0.389308 0.0155691
4459 2 0.813136 0.400901 0.0261638
4460 1 0.808735 0.372888 0.0234378
4461 1 0.824007 0.397822 0.0352643
4654 2 0.828334 0.476288 0.067242
4655 1 0.827127 0.492985 0.0777897
4656 1 0.829254 0.496155 0.0577241
4663 2 0.863998 0.280467 0.0589266
4665 1 0.856554 0.285771 0.0699287
2567 1 0.884011 0.365908 0.0962867
2932 2 0.936952 0.465669 0.0210538
2933 1 0.929517 0.488126 0.0151729
2934 1 0.939824 0.476047 0.0327947
3046 2 0.939061 0.491667 0.0557485
3047 1 0.930098 0.470437 0.0610144
3343 2 0.919591 0.420271 0.0726264
3344 1 0.911268 0.436295 0.081011
3345 1 0.915976 0.391805 0.0752644
3532 2 0.962178 0.320332 0.0599375
3533 1 0.97779 0.317792 0.0595356
3534 1 0.957134 0.30446 0.0499254
3817 2 0.933357 0.37829 0.0144912
3818 1 0.934644 0.405305 0.0198908
3819 1 0.922603 0.381912 0.0053341
3826 2 0.913514 0.27823 0.0622194
3827 1 0.924878 0.263145 0.0682134
3828 1 0.914116 0.268434 0.0501692
3880 2 0.885426 0.433719 0.0387226
3881 1 0.881661 0.462773 0.0389944
3882 1 0.901099 0.43338 0.0389507
3961 2 0.947436 0.298986 0.0267486
3962 1 0.94037 0.282719 0.0177099
3963 1 0.941783 0.326655 0.0251461
4123 2 0.956202 0.366449 0.0957731
4124 1 0.957003 0.351239 0.0847997
4125 1 0.940846 0.369863 0.097891
4201 2 0.907408 0.343474 0.0841503
4202 1 0.91239 0.326056 0.0937053
4203 1 0.908171 0.325972 0.0738144
4664 1 0.879096 0.278022 0.0621997
25 2 0.062016 0.510359 0.0174596
27 1 0.0742295 0.519207 0.0104037
133 2 0.0703691 0.556053 0.0955773
134 1 0.0548823 0.556595 0.0975429
135 1 0.0740389 0.584281 0.0925531
142 2 0.0356631 0.577646 0.0294968
143 1 0.0428565 0.551048 0.0293571
144 1 0.047317 0.597563 0.0303747
223 2 0.104471 0.696459 0.030887
224 1 0.0909873 0.690474 0.0248985
225 1 0.113013 0.671575 0.0294782
283 2 0.027478 0.686316 0.0138093
284 1 0.0208058 0.665635 0.0212689
285 1 0.0246104 0.712281 0.0197176
295 2 0.0134898 0.740231 0.0385483
296 1 0.0263518 0.729581 0.0442598
297 1 0.00440673 0.749642 0.0481454
446 1 0.119008 0.6205 0.0163963
487 2 0.0778693 0.629959 0.0730111
488 1 0.0777221 0.657629 0.0778816
489 1 0.0926837 0.625782 0.0692362
721 2 0.0532113 0.715399 0.0493622
722 1 0.0435116 0.698952 0.056529
723 1 0.067049 0.701496 0.0502786
1849 2 0.124045 0.60734 0.0628294
2140 2 0.120098 0.562134 0.0944832
2141 1 0.123894 0.574615 0.0833016
2142 1 0.107298 0.545896 0.0919616
4306 2 0.0755978 0.698604 0.0951516
4426 2 0.0778037 0.594532 0.0375401
4427 1 0.0775866 0.594209 0.0503008
4428 1 0.087151 0.571701 0.03434
4487 1 0.0811243 0.506652 0.0860221
4525 2 0.098453 0.503036 0.0443449
4526 1 0.0984869 0.501467 0.05709
4750 2 0.0367434 0.653038 0.0665943
4751 1 0.0268915 0.629982 0.0652011
4752 1 0.0505548 0.640365 0.069289
286 2 0.157721 0.67392 0.0400123
287 1 0.157096 0.701535 0.0351101
288 1 0.152123 0.656284 0.0307608
322 2 0.221758 0.694947 0.0366378
323 1 0.212288 0.702971 0.0462158
324 1 0.236198 0.700672 0.0409654
445 2 0.128251 0.617769 0.0266386
447 1 0.135995 0.592119 0.0247509
484 2 0.239157 0.566433 0.0428242
485 1 0.23368 0.551877 0.0530466
486 1 0.226827 0.58176 0.038417
595 2 0.145457 0.674877 0.0768159
596 1 0.142774 0.695726 0.0857104
597 1 0.153391 0.689273 0.0676778
619 2 0.165841 0.54679 0.087328
620 1 0.151456 0.54703 0.0924004
621 1 0.165982 0.522701 0.079751
658 2 0.217307 0.735308 0.0976544
660 1 0.222963 0.713819 0.0900543
994 2 0.190654 0.595175 0.0648761
995 1 0.176413 0.587775 0.0691795
996 1 0.188748 0.598661 0.0522956
1003 2 0.209891 0.559957 0.0983956
1004 1 0.218639 0.54546 0.0897954
1005 1 0.195884 0.562887 0.0928029
1194 1 0.18322 0.74557 0.0341696
1850 1 0.126069 0.605213 0.050206
1851 1 0.130573 0.633553 0.0659553
1909 2 0.200675 0.615331 0.0297192
1910 1 0.207528 0.642091 0.0309856
1911 1 0.198721 0.612036 0.0171341
4552 2 0.223338 0.50344 0.0702536
4591 2 0.220359 0.640859 0.0871721
4592 1 0.222059 0.615206 0.0936039
4593 1 0.216409 0.632372 0.0753631
4648 2 0.188502 0.698619 0.0643814
4649 1 0.178782 0.686376 0.0558365
4650 1 0.184142 0.686731 0.0755438
4720 2 0.143779 0.537442 0.0315105
4721 1 0.131125 0.526398 0.037392
4722 1 0.150391 0.513707 0.0258959
319 2 0.265196 0.700749 0.0504265
320 1 0.26789 0.715126 0.0614042
321 1 0.268892 0.720633 0.0413725
421 2 0.302034 0.504554 0.051209
422 1 0.304857 0.51555 0.039563
509 1 0.250909 0.504029 0.0154337
550 2 0.349958 0.559342 0.0783262
551 1 0.340076 0.538386 0.0826086
552 1 0.362978 0.555446 0.0852383
928 2 0.341401 0.636858 0.063242
929 1 0.340844 0.650428 0.0746095
930 1 0.341294 0.607623 0.0659884
1027 2 0.26184 0.617756 0.064794
1028 1 0.261421 0.645246 0.0597518
1029 1 0.254884 0.600395 0.0560739
1105 2 0.273356 0.560495 0.0901652
1106 1 0.268699 0.579566 0.0810871
1222 2 0.283163 0.603372 0.0314704
1223 1 0.287725 0.57608 0.0277665
1224 1 0.282535 0.601714 0.0442032
1225 2 0.30734 0.743899 0.0531137
1226 1 0.310987 0.720092 0.0459681
1227 1 0.301817 0.732297 0.0639859
1228 2 0.312197 0.515072 0.0906011
1229 1 0.300108 0.529296 0.0960097
1230 1 0.307419 0.509385 0.0786899
1257 1 0.262557 0.50689 0.0937229
1375 2 0.315357 0.665592 0.0354555
1376 1 0.326162 0.649882 0.0418305
1377 1 0.305569 0.644925 0.0307904
1570 2 0.370731 0.657119 0.0386616
1571 1 0.363391 0.667103 0.0282183
1572 1 0.359333 0.653837 0.0473115
1912 2 0.276601 0.745998 0.0207758
2341 2 0.31236 0.540304 0.018362
2342 1 0.308967 0.534387 0.00615995
2343 1 0.325636 0.525265 0.0205875
2381 1 0.265934 0.733221 0.0895148
697 2 0.474208 0.679418 0.073384
698 1 0.46111 0.669783 0.0677014
699 1 0.469535 0.702379 0.080636
876 1 0.487284 0.664232 0.0168481
1036 2 0.387925 0.725598 0.0546173
1037 1 0.383506 0.701202 0.0481542
1038 1 0.389774 0.746638 0.0456639
1204 2 0.418857 0.523957 0.0259061
1205 1 0.416699 0.511368 0.0373516
1444 2 0.391704 0.506606 0.0563146
1729 2 0.395521 0.590787 0.0870747
1730 1 0.393143 0.59897 0.0749518
1731 1 0.409815 0.601199 0.0898621
1741 2 0.431606 0.668754 0.0592037
1742 1 0.424104 0.642947 0.0570724
1743 1 0.420796 0.68651 0.0645085
1896 1 0.493396 0.701064 0.0541947
1936 2 0.499014 0.585225 0.0502413
1938 1 0.486256 0.585327 0.0428245
2116 2 0.454635 0.656338 0.0113551
2117 1 0.445965 0.654353 0.000755548
2118 1 0.449908 0.681738 0.0169061
2191 2 0.459292 0.575577 0.0335812
2192 1 0.457312 0.596349 0.0245331
2193 1 0.444753 0.568831 0.0373894
2224 2 0.439629 0.734879 0.0263859
2226 1 0.434723 0.720585 0.0368647
2404 2 0.406456 0.591722 0.0468756
2405 1 0.393123 0.601802 0.0417193
2406 1 0.406513 0.562409 0.044282
2794 2 0.394864 0.688101 0.0856433
2795 1 0.390293 0.707984 0.094429
2796 1 0.391243 0.700889 0.0744865
4669 2 0.475902 0.525432 0.0726135
4670 1 0.469986 0.539124 0.0828906
4671 1 0.480574 0.547767 0.0650143
874 2 0.502197 0.671758 0.0191257
875 1 0.501473 0.69005 0.0292117
956 1 0.510186 0.502839 0.0965328
1378 2 0.518288 0.507923 0.016525
1379 1 0.514346 0.534468 0.0214774
1639 2 0.59813 0.567556 0.0148048
1640 1 0.597815 0.597483 0.014604
1641 1 0.586229 0.559872 0.0224389
1750 2 0.530135 0.594385 0.0242642
1751 1 0.534667 0.587312 0.0124243
1752 1 0.523848 0.621685 0.0231546
1894 2 0.502406 0.719671 0.0474004
1895 1 0.506177 0.741508 0.055573
1937 1 0.510656 0.576963 0.0424538
1990 2 0.556448 0.713374 0.0289598
1991 1 0.570984 0.724377 0.0280505
1992 1 0.553466 0.713017 0.0414885
2122 2 0.566846 0.697465 0.0935069
2123 1 0.564977 0.682544 0.0825476
2124 1 0.565062 0.726248 0.0903123
2214 1 0.522635 0.745886 0.0136416
2233 2 0.604369 0.736664 0.0401922
2234 1 0.606874 0.72395 0.0515653
2363 1 0.505914 0.739731 0.0929705
2364 1 0.522265 0.747188 0.0781337
2377 2 0.616018 0.69495 0.0744566
2379 1 0.604578 0.676142 0.0778994
2386 2 0.56586 0.567252 0.0412452
2387 1 0.555227 0.579546 0.0334689
2388 1 0.557926 0.546269 0.0476595
2510 1 0.622257 0.746147 0.00380637
2511 1 0.620399 0.702799 0.0117845
2746 2 0.513777 0.637391 0.0746604
2747 1 0.501211 0.654555 0.0768238
2748 1 0.508749 0.616564 0.0664571
2853 1 0.56976 0.630617 0.0989729
3079 2 0.540921 0.52245 0.0662802
3080 1 0.531601 0.532881 0.0755288
3081 1 0.549532 0.501273 0.0719571
3108 1 0.610496 0.738625 0.0939522
3109 2 0.609787 0.625854 0.0957896
3110 1 0.607627 0.605611 0.0865528
3556 2 0.599197 0.570314 0.0707139
3557 1 0.591909 0.576421 0.0597182
3558 1 0.598242 0.54055 0.071843
3580 2 0.599851 0.655306 0.0238644
3581 1 0.59603 0.682902 0.0277114
3582 1 0.607173 0.643168 0.0338933
3763 2 0.551142 0.668484 0.0598552
3764 1 0.551995 0.651712 0.0493065
3765 1 0.53864 0.657935 0.0661047
2378 1 0.625702 0.678279 0.0673701
2488 2 0.667036 0.672812 0.0110741
2489 1 0.657032 0.690916 0.00499195
2490 1 0.679081 0.690491 0.0142219
2509 2 0.6299 0.720116 0.00481653
2666 1 0.67692 0.738159 0.0870582
2779 2 0.63944 0.640459 0.0545859
2780 1 0.64395 0.611891 0.0556248
2781 1 0.651355 0.653993 0.0486278
2848 2 0.666119 0.587208 0.0122829
2849 1 0.659917 0.588648 0.000577706
2850 1 0.665884 0.615471 0.0164865
2867 1 0.746935 0.580265 0.0583889
2868 1 0.738486 0.623882 0.054597
2869 2 0.703233 0.546057 0.0938332
2870 1 0.711536 0.525029 0.0877636
2871 1 0.702685 0.568976 0.0856342
2974 2 0.704339 0.539889 0.0041289
2975 1 0.691464 0.556724 0.0053608
2976 1 0.700839 0.514357 0.0101529
3004 2 0.737046 0.529522 0.0527896
3005 1 0.723841 0.513548 0.0537476
3006 1 0.742699 0.522736 0.0412425
3022 2 0.679863 0.704417 0.0580157
3023 1 0.674953 0.732006 0.055088
3024 1 0.694579 0.703272 0.0536458
3313 2 0.654525 0.702921 0.0992504
3314 1 0.641084 0.697407 0.0931168
3372 1 0.728074 0.669362 0.0979818
3620 1 0.66358 0.605851 0.0991983
3658 2 0.70202 0.724446 0.018491
3659 1 0.704846 0.72229 0.00597101
3823 2 0.725647 0.678254 0.0403612
3824 1 0.716597 0.682316 0.0300848
3825 1 0.728848 0.705941 0.0444561